# vtk DataFile Version 3.0
vtk output
ASCII
DATASET POLYDATA
FIELD FieldData 2
TIME 1 1 double
1.23456789
CYCLE 1 1 int
123
POINTS 13 float
0 2 0 2 0 0 1.5 1.5 0 
2.5 1.5 0 4 2 0 2 1.5 0 
1.5 2 0 2 2 0 2.5 2 0 
1.5 2.5 0 2 2.5 0 2.5 2.5 0 
2 4 0 
POLYGONS 12 56
3 0 1 2 
3 1 4 3 
3 0 9 12 
3 12 11 4 
4 0 2 6 9 
4 2 1 3 5 
4 3 4 11 8 
4 9 10 11 12 
4 2 5 7 6 
4 5 3 8 7 
4 6 7 10 9 
4 7 8 11 10 

CELL_DATA 12
SCALARS p float
LOOKUP_TABLE default
1.17851 1.17851 1.17851 1.17851 0.875 0.875 0.875 0.875 0.353553 
0.353553 0.353553 0.353553 
POINT_DATA 13
