# vtk DataFile Version 4.2
vtk output
ASCII
DATASET UNSTRUCTURED_GRID
POINTS 441 double
0 0 0 0.25 0 0 0.5 0 0 
0.75 0 0 1 0 0 1.25 0 0 
1.5 0 0 1.75 0 0 2 0 0 
2.25 0 0 2.5 0 0 2.75 0 0 
3 0 0 3.25 0 0 3.5 0 0 
3.75 0 0 4 0 0 4.25 0 0 
4.5 0 0 4.75 0 0 5 0 0 
0 0.25 0 0.25 0.25 0 0.5 0.25 0 
0.75 0.25 0 1 0.25 0 1.25 0.25 0 
1.5 0.25 0 1.75 0.25 0 2 0.25 0 
2.25 0.25 0 2.5 0.25 0 2.75 0.25 0 
3 0.25 0 3.25 0.25 0 3.5 0.25 0 
3.75 0.25 0 4 0.25 0 4.25 0.25 0 
4.5 0.25 0 4.75 0.25 0 5 0.25 0 
0 0.5 0 0.25 0.5 0 0.5 0.5 0 
0.75 0.5 0 1 0.5 0 1.25 0.5 0 
1.5 0.5 0 1.75 0.5 0 2 0.5 0 
2.25 0.5 0 2.5 0.5 0 2.75 0.5 0 
3 0.5 0 3.25 0.5 0 3.5 0.5 0 
3.75 0.5 0 4 0.5 0 4.25 0.5 0 
4.5 0.5 0 4.75 0.5 0 5 0.5 0 
0 0.75 0 0.25 0.75 0 0.5 0.75 0 
0.75 0.75 0 1 0.75 0 1.25 0.75 0 
1.5 0.75 0 1.75 0.75 0 2 0.75 0 
2.25 0.75 0 2.5 0.75 0 2.75 0.75 0 
3 0.75 0 3.25 0.75 0 3.5 0.75 0 
3.75 0.75 0 4 0.75 0 4.25 0.75 0 
4.5 0.75 0 4.75 0.75 0 5 0.75 0 
0 1 0 0.25 1 0 0.5 1 0 
0.75 1 0 1 1 0 1.25 1 0 
1.5 1 0 1.75 1 0 2 1 0 
2.25 1 0 2.5 1 0 2.75 1 0 
3 1 0 3.25 1 0 3.5 1 0 
3.75 1 0 4 1 0 4.25 1 0 
4.5 1 0 4.75 1 0 5 1 0 
0 1.25 0 0.25 1.25 0 0.5 1.25 0 
0.75 1.25 0 1 1.25 0 1.25 1.25 0 
1.5 1.25 0 1.75 1.25 0 2 1.25 0 
2.25 1.25 0 2.5 1.25 0 2.75 1.25 0 
3 1.25 0 3.25 1.25 0 3.5 1.25 0 
3.75 1.25 0 4 1.25 0 4.25 1.25 0 
4.5 1.25 0 4.75 1.25 0 5 1.25 0 
0 1.5 0 0.25 1.5 0 0.5 1.5 0 
0.75 1.5 0 1 1.5 0 1.25 1.5 0 
1.5 1.5 0 1.75 1.5 0 2 1.5 0 
2.25 1.5 0 2.5 1.5 0 2.75 1.5 0 
3 1.5 0 3.25 1.5 0 3.5 1.5 0 
3.75 1.5 0 4 1.5 0 4.25 1.5 0 
4.5 1.5 0 4.75 1.5 0 5 1.5 0 
0 1.75 0 0.25 1.75 0 0.5 1.75 0 
0.75 1.75 0 1 1.75 0 1.25 1.75 0 
1.5 1.75 0 1.75 1.75 0 2 1.75 0 
2.25 1.75 0 2.5 1.75 0 2.75 1.75 0 
3 1.75 0 3.25 1.75 0 3.5 1.75 0 
3.75 1.75 0 4 1.75 0 4.25 1.75 0 
4.5 1.75 0 4.75 1.75 0 5 1.75 0 
0 2 0 0.25 2 0 0.5 2 0 
0.75 2 0 1 2 0 1.25 2 0 
1.5 2 0 1.75 2 0 2 2 0 
2.25 2 0 2.5 2 0 2.75 2 0 
3 2 0 3.25 2 0 3.5 2 0 
3.75 2 0 4 2 0 4.25 2 0 
4.5 2 0 4.75 2 0 5 2 0 
0 2.25 0 0.25 2.25 0 0.5 2.25 0 
0.75 2.25 0 1 2.25 0 1.25 2.25 0 
1.5 2.25 0 1.75 2.25 0 2 2.25 0 
2.25 2.25 0 2.5 2.25 0 2.75 2.25 0 
3 2.25 0 3.25 2.25 0 3.5 2.25 0 
3.75 2.25 0 4 2.25 0 4.25 2.25 0 
4.5 2.25 0 4.75 2.25 0 5 2.25 0 
0 2.5 0 0.25 2.5 0 0.5 2.5 0 
0.75 2.5 0 1 2.5 0 1.25 2.5 0 
1.5 2.5 0 1.75 2.5 0 2 2.5 0 
2.25 2.5 0 2.5 2.5 0 2.75 2.5 0 
3 2.5 0 3.25 2.5 0 3.5 2.5 0 
3.75 2.5 0 4 2.5 0 4.25 2.5 0 
4.5 2.5 0 4.75 2.5 0 5 2.5 0 
0 2.75 0 0.25 2.75 0 0.5 2.75 0 
0.75 2.75 0 1 2.75 0 1.25 2.75 0 
1.5 2.75 0 1.75 2.75 0 2 2.75 0 
2.25 2.75 0 2.5 2.75 0 2.75 2.75 0 
3 2.75 0 3.25 2.75 0 3.5 2.75 0 
3.75 2.75 0 4 2.75 0 4.25 2.75 0 
4.5 2.75 0 4.75 2.75 0 5 2.75 0 
0 3 0 0.25 3 0 0.5 3 0 
0.75 3 0 1 3 0 1.25 3 0 
1.5 3 0 1.75 3 0 2 3 0 
2.25 3 0 2.5 3 0 2.75 3 0 
3 3 0 3.25 3 0 3.5 3 0 
3.75 3 0 4 3 0 4.25 3 0 
4.5 3 0 4.75 3 0 5 3 0 
0 3.25 0 0.25 3.25 0 0.5 3.25 0 
0.75 3.25 0 1 3.25 0 1.25 3.25 0 
1.5 3.25 0 1.75 3.25 0 2 3.25 0 
2.25 3.25 0 2.5 3.25 0 2.75 3.25 0 
3 3.25 0 3.25 3.25 0 3.5 3.25 0 
3.75 3.25 0 4 3.25 0 4.25 3.25 0 
4.5 3.25 0 4.75 3.25 0 5 3.25 0 
0 3.5 0 0.25 3.5 0 0.5 3.5 0 
0.75 3.5 0 1 3.5 0 1.25 3.5 0 
1.5 3.5 0 1.75 3.5 0 2 3.5 0 
2.25 3.5 0 2.5 3.5 0 2.75 3.5 0 
3 3.5 0 3.25 3.5 0 3.5 3.5 0 
3.75 3.5 0 4 3.5 0 4.25 3.5 0 
4.5 3.5 0 4.75 3.5 0 5 3.5 0 
0 3.75 0 0.25 3.75 0 0.5 3.75 0 
0.75 3.75 0 1 3.75 0 1.25 3.75 0 
1.5 3.75 0 1.75 3.75 0 2 3.75 0 
2.25 3.75 0 2.5 3.75 0 2.75 3.75 0 
3 3.75 0 3.25 3.75 0 3.5 3.75 0 
3.75 3.75 0 4 3.75 0 4.25 3.75 0 
4.5 3.75 0 4.75 3.75 0 5 3.75 0 
0 4 0 0.25 4 0 0.5 4 0 
0.75 4 0 1 4 0 1.25 4 0 
1.5 4 0 1.75 4 0 2 4 0 
2.25 4 0 2.5 4 0 2.75 4 0 
3 4 0 3.25 4 0 3.5 4 0 
3.75 4 0 4 4 0 4.25 4 0 
4.5 4 0 4.75 4 0 5 4 0 
0 4.25 0 0.25 4.25 0 0.5 4.25 0 
0.75 4.25 0 1 4.25 0 1.25 4.25 0 
1.5 4.25 0 1.75 4.25 0 2 4.25 0 
2.25 4.25 0 2.5 4.25 0 2.75 4.25 0 
3 4.25 0 3.25 4.25 0 3.5 4.25 0 
3.75 4.25 0 4 4.25 0 4.25 4.25 0 
4.5 4.25 0 4.75 4.25 0 5 4.25 0 
0 4.5 0 0.25 4.5 0 0.5 4.5 0 
0.75 4.5 0 1 4.5 0 1.25 4.5 0 
1.5 4.5 0 1.75 4.5 0 2 4.5 0 
2.25 4.5 0 2.5 4.5 0 2.75 4.5 0 
3 4.5 0 3.25 4.5 0 3.5 4.5 0 
3.75 4.5 0 4 4.5 0 4.25 4.5 0 
4.5 4.5 0 4.75 4.5 0 5 4.5 0 
0 4.75 0 0.25 4.75 0 0.5 4.75 0 
0.75 4.75 0 1 4.75 0 1.25 4.75 0 
1.5 4.75 0 1.75 4.75 0 2 4.75 0 
2.25 4.75 0 2.5 4.75 0 2.75 4.75 0 
3 4.75 0 3.25 4.75 0 3.5 4.75 0 
3.75 4.75 0 4 4.75 0 4.25 4.75 0 
4.5 4.75 0 4.75 4.75 0 5 4.75 0 
0 5 0 0.25 5 0 0.5 5 0 
0.75 5 0 1 5 0 1.25 5 0 
1.5 5 0 1.75 5 0 2 5 0 
2.25 5 0 2.5 5 0 2.75 5 0 
3 5 0 3.25 5 0 3.5 5 0 
3.75 5 0 4 5 0 4.25 5 0 
4.5 5 0 4.75 5 0 5 5 0 

CELLS 400 2000
4 1 22 21 0 
4 2 23 22 1 
4 3 24 23 2 
4 4 25 24 3 
4 5 26 25 4 
4 6 27 26 5 
4 7 28 27 6 
4 8 29 28 7 
4 9 30 29 8 
4 10 31 30 9 
4 11 32 31 10 
4 12 33 32 11 
4 13 34 33 12 
4 14 35 34 13 
4 15 36 35 14 
4 16 37 36 15 
4 17 38 37 16 
4 18 39 38 17 
4 19 40 39 18 
4 20 41 40 19 
4 22 43 42 21 
4 23 44 43 22 
4 24 45 44 23 
4 25 46 45 24 
4 26 47 46 25 
4 27 48 47 26 
4 28 49 48 27 
4 29 50 49 28 
4 30 51 50 29 
4 31 52 51 30 
4 32 53 52 31 
4 33 54 53 32 
4 34 55 54 33 
4 35 56 55 34 
4 36 57 56 35 
4 37 58 57 36 
4 38 59 58 37 
4 39 60 59 38 
4 40 61 60 39 
4 41 62 61 40 
4 43 64 63 42 
4 44 65 64 43 
4 45 66 65 44 
4 46 67 66 45 
4 47 68 67 46 
4 48 69 68 47 
4 49 70 69 48 
4 50 71 70 49 
4 51 72 71 50 
4 52 73 72 51 
4 53 74 73 52 
4 54 75 74 53 
4 55 76 75 54 
4 56 77 76 55 
4 57 78 77 56 
4 58 79 78 57 
4 59 80 79 58 
4 60 81 80 59 
4 61 82 81 60 
4 62 83 82 61 
4 64 85 84 63 
4 65 86 85 64 
4 66 87 86 65 
4 67 88 87 66 
4 68 89 88 67 
4 69 90 89 68 
4 70 91 90 69 
4 71 92 91 70 
4 72 93 92 71 
4 73 94 93 72 
4 74 95 94 73 
4 75 96 95 74 
4 76 97 96 75 
4 77 98 97 76 
4 78 99 98 77 
4 79 100 99 78 
4 80 101 100 79 
4 81 102 101 80 
4 82 103 102 81 
4 83 104 103 82 
4 85 106 105 84 
4 86 107 106 85 
4 87 108 107 86 
4 88 109 108 87 
4 89 110 109 88 
4 90 111 110 89 
4 91 112 111 90 
4 92 113 112 91 
4 93 114 113 92 
4 94 115 114 93 
4 95 116 115 94 
4 96 117 116 95 
4 97 118 117 96 
4 98 119 118 97 
4 99 120 119 98 
4 100 121 120 99 
4 101 122 121 100 
4 102 123 122 101 
4 103 124 123 102 
4 104 125 124 103 
4 106 127 126 105 
4 107 128 127 106 
4 108 129 128 107 
4 109 130 129 108 
4 110 131 130 109 
4 111 132 131 110 
4 112 133 132 111 
4 113 134 133 112 
4 114 135 134 113 
4 115 136 135 114 
4 116 137 136 115 
4 117 138 137 116 
4 118 139 138 117 
4 119 140 139 118 
4 120 141 140 119 
4 121 142 141 120 
4 122 143 142 121 
4 123 144 143 122 
4 124 145 144 123 
4 125 146 145 124 
4 127 148 147 126 
4 128 149 148 127 
4 129 150 149 128 
4 130 151 150 129 
4 131 152 151 130 
4 132 153 152 131 
4 133 154 153 132 
4 134 155 154 133 
4 135 156 155 134 
4 136 157 156 135 
4 137 158 157 136 
4 138 159 158 137 
4 139 160 159 138 
4 140 161 160 139 
4 141 162 161 140 
4 142 163 162 141 
4 143 164 163 142 
4 144 165 164 143 
4 145 166 165 144 
4 146 167 166 145 
4 148 169 168 147 
4 149 170 169 148 
4 150 171 170 149 
4 151 172 171 150 
4 152 173 172 151 
4 153 174 173 152 
4 154 175 174 153 
4 155 176 175 154 
4 156 177 176 155 
4 157 178 177 156 
4 158 179 178 157 
4 159 180 179 158 
4 160 181 180 159 
4 161 182 181 160 
4 162 183 182 161 
4 163 184 183 162 
4 164 185 184 163 
4 165 186 185 164 
4 166 187 186 165 
4 167 188 187 166 
4 169 190 189 168 
4 170 191 190 169 
4 171 192 191 170 
4 172 193 192 171 
4 173 194 193 172 
4 174 195 194 173 
4 175 196 195 174 
4 176 197 196 175 
4 177 198 197 176 
4 178 199 198 177 
4 179 200 199 178 
4 180 201 200 179 
4 181 202 201 180 
4 182 203 202 181 
4 183 204 203 182 
4 184 205 204 183 
4 185 206 205 184 
4 186 207 206 185 
4 187 208 207 186 
4 188 209 208 187 
4 190 211 210 189 
4 191 212 211 190 
4 192 213 212 191 
4 193 214 213 192 
4 194 215 214 193 
4 195 216 215 194 
4 196 217 216 195 
4 197 218 217 196 
4 198 219 218 197 
4 199 220 219 198 
4 200 221 220 199 
4 201 222 221 200 
4 202 223 222 201 
4 203 224 223 202 
4 204 225 224 203 
4 205 226 225 204 
4 206 227 226 205 
4 207 228 227 206 
4 208 229 228 207 
4 209 230 229 208 
4 211 232 231 210 
4 212 233 232 211 
4 213 234 233 212 
4 214 235 234 213 
4 215 236 235 214 
4 216 237 236 215 
4 217 238 237 216 
4 218 239 238 217 
4 219 240 239 218 
4 220 241 240 219 
4 221 242 241 220 
4 222 243 242 221 
4 223 244 243 222 
4 224 245 244 223 
4 225 246 245 224 
4 226 247 246 225 
4 227 248 247 226 
4 228 249 248 227 
4 229 250 249 228 
4 230 251 250 229 
4 232 253 252 231 
4 233 254 253 232 
4 234 255 254 233 
4 235 256 255 234 
4 236 257 256 235 
4 237 258 257 236 
4 238 259 258 237 
4 239 260 259 238 
4 240 261 260 239 
4 241 262 261 240 
4 242 263 262 241 
4 243 264 263 242 
4 244 265 264 243 
4 245 266 265 244 
4 246 267 266 245 
4 247 268 267 246 
4 248 269 268 247 
4 249 270 269 248 
4 250 271 270 249 
4 251 272 271 250 
4 253 274 273 252 
4 254 275 274 253 
4 255 276 275 254 
4 256 277 276 255 
4 257 278 277 256 
4 258 279 278 257 
4 259 280 279 258 
4 260 281 280 259 
4 261 282 281 260 
4 262 283 282 261 
4 263 284 283 262 
4 264 285 284 263 
4 265 286 285 264 
4 266 287 286 265 
4 267 288 287 266 
4 268 289 288 267 
4 269 290 289 268 
4 270 291 290 269 
4 271 292 291 270 
4 272 293 292 271 
4 274 295 294 273 
4 275 296 295 274 
4 276 297 296 275 
4 277 298 297 276 
4 278 299 298 277 
4 279 300 299 278 
4 280 301 300 279 
4 281 302 301 280 
4 282 303 302 281 
4 283 304 303 282 
4 284 305 304 283 
4 285 306 305 284 
4 286 307 306 285 
4 287 308 307 286 
4 288 309 308 287 
4 289 310 309 288 
4 290 311 310 289 
4 291 312 311 290 
4 292 313 312 291 
4 293 314 313 292 
4 295 316 315 294 
4 296 317 316 295 
4 297 318 317 296 
4 298 319 318 297 
4 299 320 319 298 
4 300 321 320 299 
4 301 322 321 300 
4 302 323 322 301 
4 303 324 323 302 
4 304 325 324 303 
4 305 326 325 304 
4 306 327 326 305 
4 307 328 327 306 
4 308 329 328 307 
4 309 330 329 308 
4 310 331 330 309 
4 311 332 331 310 
4 312 333 332 311 
4 313 334 333 312 
4 314 335 334 313 
4 316 337 336 315 
4 317 338 337 316 
4 318 339 338 317 
4 319 340 339 318 
4 320 341 340 319 
4 321 342 341 320 
4 322 343 342 321 
4 323 344 343 322 
4 324 345 344 323 
4 325 346 345 324 
4 326 347 346 325 
4 327 348 347 326 
4 328 349 348 327 
4 329 350 349 328 
4 330 351 350 329 
4 331 352 351 330 
4 332 353 352 331 
4 333 354 353 332 
4 334 355 354 333 
4 335 356 355 334 
4 337 358 357 336 
4 338 359 358 337 
4 339 360 359 338 
4 340 361 360 339 
4 341 362 361 340 
4 342 363 362 341 
4 343 364 363 342 
4 344 365 364 343 
4 345 366 365 344 
4 346 367 366 345 
4 347 368 367 346 
4 348 369 368 347 
4 349 370 369 348 
4 350 371 370 349 
4 351 372 371 350 
4 352 373 372 351 
4 353 374 373 352 
4 354 375 374 353 
4 355 376 375 354 
4 356 377 376 355 
4 358 379 378 357 
4 359 380 379 358 
4 360 381 380 359 
4 361 382 381 360 
4 362 383 382 361 
4 363 384 383 362 
4 364 385 384 363 
4 365 386 385 364 
4 366 387 386 365 
4 367 388 387 366 
4 368 389 388 367 
4 369 390 389 368 
4 370 391 390 369 
4 371 392 391 370 
4 372 393 392 371 
4 373 394 393 372 
4 374 395 394 373 
4 375 396 395 374 
4 376 397 396 375 
4 377 398 397 376 
4 379 400 399 378 
4 380 401 400 379 
4 381 402 401 380 
4 382 403 402 381 
4 383 404 403 382 
4 384 405 404 383 
4 385 406 405 384 
4 386 407 406 385 
4 387 408 407 386 
4 388 409 408 387 
4 389 410 409 388 
4 390 411 410 389 
4 391 412 411 390 
4 392 413 412 391 
4 393 414 413 392 
4 394 415 414 393 
4 395 416 415 394 
4 396 417 416 395 
4 397 418 417 396 
4 398 419 418 397 
4 400 421 420 399 
4 401 422 421 400 
4 402 423 422 401 
4 403 424 423 402 
4 404 425 424 403 
4 405 426 425 404 
4 406 427 426 405 
4 407 428 427 406 
4 408 429 428 407 
4 409 430 429 408 
4 410 431 430 409 
4 411 432 431 410 
4 412 433 432 411 
4 413 434 433 412 
4 414 435 434 413 
4 415 436 435 414 
4 416 437 436 415 
4 417 438 437 416 
4 418 439 438 417 
4 419 440 439 418 

CELL_TYPES 400
9
9
9
9
9
9
9
9
9
9
9
9
9
9
9
9
9
9
9
9
9
9
9
9
9
9
9
9
9
9
9
9
9
9
9
9
9
9
9
9
9
9
9
9
9
9
9
9
9
9
9
9
9
9
9
9
9
9
9
9
9
9
9
9
9
9
9
9
9
9
9
9
9
9
9
9
9
9
9
9
9
9
9
9
9
9
9
9
9
9
9
9
9
9
9
9
9
9
9
9
9
9
9
9
9
9
9
9
9
9
9
9
9
9
9
9
9
9
9
9
9
9
9
9
9
9
9
9
9
9
9
9
9
9
9
9
9
9
9
9
9
9
9
9
9
9
9
9
9
9
9
9
9
9
9
9
9
9
9
9
9
9
9
9
9
9
9
9
9
9
9
9
9
9
9
9
9
9
9
9
9
9
9
9
9
9
9
9
9
9
9
9
9
9
9
9
9
9
9
9
9
9
9
9
9
9
9
9
9
9
9
9
9
9
9
9
9
9
9
9
9
9
9
9
9
9
9
9
9
9
9
9
9
9
9
9
9
9
9
9
9
9
9
9
9
9
9
9
9
9
9
9
9
9
9
9
9
9
9
9
9
9
9
9
9
9
9
9
9
9
9
9
9
9
9
9
9
9
9
9
9
9
9
9
9
9
9
9
9
9
9
9
9
9
9
9
9
9
9
9
9
9
9
9
9
9
9
9
9
9
9
9
9
9
9
9
9
9
9
9
9
9
9
9
9
9
9
9
9
9
9
9
9
9
9
9
9
9
9
9
9
9
9
9
9
9
9
9
9
9
9
9
9
9
9
9
9
9
9
9
9
9
9
9
9
9
9
9
9
9
9
9
9
9
9
9
9
9
9
9
9
9
9
9
9
9
9
9
9
9
9
9
9
9
9
9
9
9
9
9

CELL_DATA 400
SCALARS $\psi$ double
LOOKUP_TABLE default
0.00090231548856 0.00084625034105 0.00073551119451 0.00057284539866 0.00036228746135 0.00010905760962 -0.0001805695086 -0.00049942263801 -0.00083961415151 
-0.0011927379612 -0.0015500798404 -0.0019028345518 -0.0022423240338 -0.0025602109747 -0.0028487023813 -0.0031007382046 -0.0033101606766 -0.0034718606824 
-0.0035818981959 -0.0036375944914 0.00098448385727 0.00092842187563 0.00081768860139 0.00065503051416 0.00044448093393 0.00019125870948 -9.8362930504e-05 
-0.00041721403496 -0.00075740801901 -0.0011105394519 -0.0014678942931 -0.0018206669792 -0.0021601786202 -0.002478090633 -0.0027666084125 -0.0030186700953 
-0.0032281160545 -0.0033898354374 -0.003499886756 -0.0035555902302 0.0011467796698 0.0010907244979 0.00098000392193 0.00081736267597 0.00060683169396 
0.00035362705084 6.4019109655e-05 -0.00025482482609 -0.0005950203089 -0.00094816329036 -0.0013055401845 -0.0016583448723 -0.0019978969143 -0.0023158552986 
-0.0026044223134 -0.0028565325806 -0.003066022862 -0.0032277789218 -0.0033378564224 -0.0033935735264 0.0013851719779 0.0013291281487 0.0012184288721 
0.0010558162535 0.00084531762629 0.00059214486678 0.0003025639789 -1.626179479e-05 -0.00035645133616 -0.00070960282993 -0.0010670035681 -0.0014198468278 
-0.0017594501023 -0.0020774690115 -0.0023661014662 -0.0026182770921 -0.0028278274918 -0.0029896335789 -0.0030997469214 -0.0031554827223 0.0016937405347 
0.0016377137548 0.0015270467253 0.0013644780341 0.001154030186 0.00090090940346 0.00061137578372 0.00029258700937 -4.7580446026e-05 -0.00040072801573 
-0.0007581444999 -0.0011110227692 -0.0014506780104 -0.0017687618371 -0.0020574668222 -0.0023097164211 -0.0025193358143 -0.0026811998485 -0.0027913549545 
-0.0028471126138 0.0020648241443 0.0020088214059 0.0018982001465 0.0017356945538 0.0015253210741 0.0012722788043 0.00098282034368 0.0006640962354 
0.00032397686721 -2.9143635808e-05 -0.000386556443 -0.00073945449788 -0.0010791507656 -0.0013972925712 -0.0016860665609 -0.0019383892132 -0.0021480783702 
-0.0023100019 -0.0024202002988 -0.0024759807373 0.0024892132471 0.0024332427393 0.0023226831811 0.0021602635005 0.0019499928799 0.001697061831 
0.0014077138516 0.0010890907144 0.0007490551783 0.00039599557275 3.8617275007e-05 -0.00031427349413 -0.00065398790024 -0.000972169074 -0.001260997545 
-0.0015133824092 -0.0017231336335 -0.0018851115322 -0.0019953501419 -0.0020511519254 0.0029563821079 0.0029004529216 0.002789972827 0.0026276646831 
0.0024175292639 0.002164747095 0.0018755510066 0.0015570723722 0.001217164728 0.00086420914116 0.00050690626913 0.00015406048326 -0.00018563831737 
-0.0005038295253 -0.00079268775628 -0.0010451147189 -0.001254912353 -0.0014169331877 -0.0015272045557 -0.0015830240135 0.0034547547206 0.0033988763639 
0.0032884943747 0.0031263248161 0.0029163590186 0.0026637662374 0.0023747671765 0.0020564812564 0.0017167512237 0.0013639493789 0.0010067702832 
0.00065401525943 0.00031437428142 -3.78907458e-06 -0.00029264406616 -0.00054508537966 -0.0007549071378 -0.00091695418072 -0.0010272471636 -0.0010830787292 
0.003971997374 0.0039161791365 0.0038059135213 0.0036439091894 0.0034341471552 0.0031817843062 0.0028930279489 0.0025749841626 0.0022354834597 
0.00188288793 0.0015258846485 0.0011732705986 0.00083373467033 0.00051564240478 0.00022682906296 -2.5593695709e-05 -0.00023541270036 -0.00039746548882 
-0.00050776630657 -0.00056360305013 0.0044953298443 0.0044395800663 0.0043294472788 0.0041676322935 0.0039581051563 0.0037060095489 0.0034175383839 
0.0030997832755 0.002760561285 0.0024082230194 0.0020514467779 0.0016990239326 0.0013596410702 0.0010416645585 0.00075293314459 0.00050056392611 
0.0002907765984 0.00012874030435 1.8446739481e-05 -3.7387559771e-05 0.005011846503 0.0049561718179 0.0048461849998 0.004684578761 0.0044753118 
0.0042235140854 0.0039353634987 0.0036179364265 0.0032790355983 0.0029269991529 0.0025704955421 0.0022183093947 0.0018791238308 0.0015613048847 
0.0012726936685 0.0010204116731 0.0008106841846 0.00064868623686 0.00053841484809 0.00048259056289 0.0055088383392 0.0054532429621 0.0053434105374 
0.0051820256548 0.0049730356081 0.0047215565364 0.0044337510882 0.0041166801087 0.0037781315491 0.003426430488 0.0030702347896 0.0027183214628 
0.0023793691703 0.0020617425438 0.0017732839582 0.0015211182126 0.0013114751719 0.0011495348746 0.0010392989491 0.00098349144991 0.0059741070398 
0.0059185921751 0.0058089166753 0.0056477572352 0.0054390500414 0.0051878977249 0.0049004479916 0.0045837463489 0.0042455660364 0.0038942189614 
0.0035383520881 0.0031867342846 0.0028480390416 0.0025306287135 0.0022423459526 0.0019903178348 0.0017807777956 0.0016189099646 0.001508719829 
0.0014529344179 0.0063962628379 0.0063408262661 0.00623130351 0.0060703638588 0.0058619330632 0.0056111010296 0.005324001337 0.0050076649187 
0.0046698509337 0.0043188585488 0.0039633240112 0.0036120079587 0.0032735783521 0.0029563946694 0.0026682990556 0.0024164199623 0.0022069934622 
0.0020452068973 0.0019350688703 0.0018793088477 0.0067649987566 0.0067096346483 0.0066002533684 0.0064395175502 0.0062313435514 0.0059808098008 
0.0056940370973 0.0053780431333 0.0050405741999 0.0046899177218 0.0043346999413 0.0039836736501 0.0036455013254 0.0033285393017 0.0030406286869 
0.0027888985954 0.002579586932 0.0024178834532 0.0023077991813 0.0022520655066 0.0070713350447 0.0070160340272 0.0069067759957 0.0067462179211 
0.0065382681614 0.006287995354 0.0060015093682 0.005685816535 0.0053486520521 0.0049982931542 0.0046433573152 0.0042925903422 0.0039546496928 
0.0036378886408 0.0033501470109 0.0030985540839 0.0028893489514 0.0027277230971 0.0026176893383 0.0025619805169 0.0073078288689 0.0072525783513 
0.0071434190138 0.006983003374 0.0067752334928 0.0065251702897 0.006238915003 0.0059234649687 0.0055865465707 0.0052364289069 0.0048817223987 
0.0045311671712 0.0041934165187 0.0038768210729 0.003589219405 0.0033377406857 0.0031286247135 0.0029670641318 0.0028570730095 0.0028013852183 
0.0074687455812 0.0074135303181 0.0073044399002 0.0071441237742 0.006936479656 0.0066865631347 0.0064004694798 0.0060851897955 0.0057484443442 
0.0053984965532 0.0050439519036 0.0046935465103 0.0043559306909 0.0040394531399 0.0037519514449 0.003500554582 0.0032915027267 0.0031299892243 
0.0030200289285 0.0029643563662 0.0075501889912 0.0074949918468 0.0073859368554 0.0072256718971 0.0070180924699 0.0067682514409 0.0064822410289 
0.00616704915 0.0058303929299 0.0054805328842 0.0051260719504 0.004775744169 0.0044381983066 0.0041217820343 0.0038343324013 0.0035829782485 
0.0033739599096 0.0032124710586 0.0031025269257 0.0030468623549 
FIELD FieldData 1
$\phi$ 1 400 double
0.50722012161 0.50782767058 0.50902766409 0.51079026792 0.51307166036 0.51581512761 0.51895248924 0.52240582084 0.52608943108 
0.52991204047 0.53377910031 0.53759518455 0.54126638446 0.5447026374 0.54781992588 0.55054229164 0.5528036198 0.55454915935 
0.55573675689 0.55633778958 0.50633711801 0.50694465011 0.50814461728 0.50990719921 0.51218859299 0.51493210623 0.51806957987 
0.52152310808 0.52520701283 0.52903002042 0.5328975791 0.53671425034 0.54038610386 0.54382304762 0.54694102895 0.5496640513 
0.55192596139 0.55367197281 0.55485990271 0.55546110709 0.50459306249 0.50520055113 0.50640044623 0.50816295547 0.51044431377 
0.51318787199 0.51632551443 0.5197793733 0.52346379819 0.52728752847 0.53115600795 0.53497377506 0.53864685849 0.54208510965 
0.54520440778 0.54792868193 0.55019170406 0.55193861872 0.5531271855 0.55372871909 0.50203133262 0.50263873299 0.50383847398 
0.50560080555 0.50788201997 0.51062553387 0.51376329796 0.51721750353 0.52090254424 0.52472718231 0.52859685892 0.53241608252 
0.53609082536 0.53953085936 0.54265196711 0.54537797137 0.54764253682 0.54939070877 0.55058016381 0.5511821571 0.49871568396 
0.49932292695 0.50052238321 0.50228435957 0.50456522557 0.50730848698 0.51044618536 0.51390059397 0.51758616969 0.52141171088 
0.52528266212 0.52910349992 0.53278013017 0.53622222836 0.53934545786 0.54207350915 0.54433991269 0.54608958898 0.54728011016 
0.54788265616 0.49472869019 0.49533567943 0.49653466595 0.49829602798 0.50057623263 0.50331889879 0.50645618448 0.50991046987 
0.513596297 0.51742251752 0.52129459026 0.52511696359 0.52879547366 0.53223968958 0.53536514027 0.53809536513 0.54036374002 
0.54211504107 0.54330671901 0.5439098663 0.4901696917 0.49077630452 0.49197458342 0.49373499246 0.49601411639 0.49875571143 
0.50189207841 0.50534573079 0.50903132028 0.51285777259 0.51673057646 0.52055416182 0.52423429861 0.52768044718 0.53080799466 
0.53354031838 0.53581062671 0.53756353826 0.53875637078 0.53936012056 0.48515228904 0.48575838118 0.48695567105 0.48871472224 
0.49099225646 0.49373219084 0.49686699519 0.50031934334 0.50400402277 0.50783005685 0.51170298408 0.51552723109 0.51920851167 
0.52265618243 0.52578548928 0.52851964452 0.53079168367 0.53254606141 0.53373995635 0.53434426385 0.47980143695 0.48040685094 
0.48160284323 0.48336008941 0.48563546582 0.48837307242 0.49150557286 0.49495582766 0.49863878651 0.50246359562 0.50633586595 
0.51016004032 0.51384179195 0.51729038541 0.52042093322 0.52315648714 0.52542991177 0.52718549799 0.52838028444 0.52898506454 
0.47425021628 0.47485479267 0.47604917389 0.47780415797 0.48007679105 0.48281137491 0.48594078909 0.48938810485 0.49306845911 
0.49689114585 0.50076187245 0.50458512003 0.50826654095 0.5117153246 0.51484646404 0.51758286154 0.5198572191 0.52161366981 
0.52280911643 0.52341425287 0.46863638124 0.46923997174 0.4704324493 0.47218474226 0.47445407805 0.47718497512 0.48031054652 
0.48375409425 0.48743096418 0.49125062079 0.49511889097 0.49894031687 0.50262055184 0.50606873043 0.50919974462 0.5119363633 
0.51421113946 0.51596805934 0.51716389801 0.51776925537 0.46309879453 0.46370127573 0.46489160506 0.46664084578 0.4689064135 
0.47163305267 0.47475412164 0.47819316733 0.48186576093 0.48568155587 0.48954651861 0.49336527359 0.49704349695 0.5004902901 
0.50362046494 0.50635667645 0.50863134598 0.51038832761 0.51158428015 0.51218971734 0.45777387017 0.45837515652 0.45956316679 
0.46130909984 0.463570561 0.46629252347 0.46940859542 0.4728425754 0.47651026928 0.48032153161 0.48418248339 0.48799784892 
0.49167334675 0.49511806625 0.49824676073 0.50098199237 0.50325607047 0.50501273398 0.50620853916 0.50681392311 0.45279214201 
0.45339219674 0.45457781247 0.45632032013 0.45857751025 0.46129458012 0.46440538393 0.46783396993 0.47149637951 0.47530267258 
0.47915913281 0.48297059634 0.48664283974 0.49008495868 0.49321166825 0.49594545872 0.49821854757 0.49997457681 0.50117001499 
0.50177523316 0.44827506367 0.44887390656 0.45005716309 0.45179628824 0.45404924686 0.45676144782 0.45986697864 0.46329012589 
0.46694715779 0.47074833485 0.47460010337 0.47840741634 0.48207611824 0.48551532533 0.48863973188 0.49137177559 0.49364360162 
0.49539877317 0.49659368626 0.49719865674 0.44433212669 0.44492983784 0.44611088885 0.4478468463 0.45009583216 0.4528034465 
0.45590398842 0.45932196174 0.46297384302 0.46677007906 0.47061726986 0.47442048244 0.47808563255 0.48152186598 0.4846438697 
0.48737404534 0.48964448358 0.49139868589 0.49259299048 0.49319766875 0.44105835891 0.44165507802 0.44283419424 0.44456736919 
0.44681285876 0.44951642635 0.45261255234 0.45602592745 0.45967320851 0.46346500492 0.46730805263 0.47110752187 0.47476939608 
0.47820285378 0.4813225836 0.4840509643 0.48632004737 0.48807328818 0.48926698081 0.48987136243 0.43853223997 0.43912816112 
0.44030572018 0.44203665355 0.44427932262 0.44697961963 0.45007216833 0.45348180767 0.45712533811 0.46091349941 0.46475313762 
0.46854950792 0.47220865122 0.47563977645 0.47875757834 0.48148442233 0.48375233356 0.48550473496 0.48669788901 0.48730200812 
0.43681404863 0.43740941087 0.43858587882 0.44031524046 0.44255593002 0.44525392879 0.44834395973 0.45175096463 0.45539184388 
0.45917742838 0.46301464161 0.46680879917 0.47046598371 0.47389542741 0.47701183154 0.47973755467 0.48200460591 0.48375638772 
0.48494914233 0.48555306611 0.43594463971 0.43653971414 0.43771562012 0.43944417195 0.44168384103 0.44438065414 0.44746938498 
0.45087502799 0.45451453484 0.45829878326 0.46213473674 0.46592774224 0.46958390438 0.47301246786 0.47612813801 0.47885327061 
0.48111986726 0.48287132053 0.48406386279 0.48466768255 
