# vtk DataFile Version 4.2
vtk file generated by meshmagick on Sat Dec 11 21:23:45 2021
ASCII
DATASET UNSTRUCTURED_GRID

POINTS 12 float
-0.018330 0.000000 0.000000
1.000000 0.000000 0.000000
1.000000 0.927314 0.000000
-0.017488 0.928732 0.000000
2.018330 0.000000 0.000000
2.017488 0.928732 0.000000
2.010510 1.853610 0.000000
1.000000 1.860436 0.000000
-0.010510 1.853610 0.000000
2.033673 2.751447 0.000000
1.000000 2.816553 0.000000
-0.033673 2.751447 0.000000

CELLS 6 30
4 0 1 2 3
4 1 4 5 2
4 2 5 6 7
4 3 2 7 8
4 7 6 9 10
4 8 7 10 11

CELL_TYPES 6
9
9
9
9
9
9

POINT_DATA 12
VECTORS u float
-0.01833046 0.00000000 0.00000000
0.00000000 0.00000000 0.00000000
0.00000000 -0.07268639 0.00000000
-0.01748780 -0.07126817 0.00000000
0.01833046 0.00000000 0.00000000
0.01748780 -0.07126817 0.00000000
0.01051036 -0.14639010 0.00000000
0.00000000 -0.13956400 0.00000000
-0.01051036 -0.14639010 0.00000000
0.03367323 -0.24855295 0.00000000
0.00000000 -0.18344705 0.00000000
-0.03367323 -0.24855295 0.00000000
VECTORS $\epsilon$ float
0.01833046 -0.07126817 0.00042133
0.01833046 -0.07268639 0.00000000
0.01748780 -0.06978200 0.00000000
0.01748780 -0.07319505 0.00124592
0.01833046 -0.07126817 -0.00042133
0.01748780 -0.07319505 -0.00124592
0.01051036 -0.08864239 0.00063330
0.01051036 -0.05538033 -0.00000000
0.01051036 -0.08864239 -0.00063330
0.03367323 -0.10216285 -0.02097152
0.03367323 -0.04388305 -0.00000000
0.03367323 -0.10216285 0.02097152
