# vtk DataFile Version 5.1
vtk output
ASCII
DATASET UNSTRUCTURED_GRID
POINTS 12 double
-0.018330457789 0 0 1 0 0 1 0.92731360906 0 
-0.017487800163 0.92873182645 0 2.0183304578 0 0 2.0174878002 0.92873182645 0 
2.0105103571 1.8536098954 0 1 1.8604360008 0 -0.010510357095 1.8536098954 0 
2.0336732277 2.7514470488 0 1 2.8165529512 0 -0.033673227696 2.7514470488 0 

CELLS 7 24
OFFSETS vtktypeint64
0 4 8 12 16 20 24 
CONNECTIVITY vtktypeint64
0 1 2 3 1 4 5 2 2 
5 6 7 3 2 7 8 7 6 
9 10 8 7 10 11 
CELL_TYPES 6
9
9
9
9
9
9

POINT_DATA 12
SCALARS $\epsilon_{xy}$ double
LOOKUP_TABLE default
0.00042132883604 3.0730355326e-17 0 0.0012459164935 -0.00042132883604 -0.0012459164935 0.00063330441085 -8.5651971626e-18 -0.00063330441085 
-0.020971516423 -1.734723476e-17 0.020971516423 
FIELD FieldData 4
$u_x$ 1 12 double
-0.018330457789 0 6.1533949227e-17 -0.017487800163 0.018330457789 0.017487800163 0.010510357095 2.1945791484e-16 -0.010510357095 
0.033673227696 4.4861706971e-16 -0.033673227696 
$u_y$ 1 12 double
0 0 -0.072686390936 -0.071268173552 0 -0.071268173552 -0.14639010462 -0.13956399918 -0.14639010462 
-0.24855295116 -0.18344704884 -0.24855295116 
$\epsilon_{xx}$ 1 12 double
0.018330458075 0.018330458075 0.017487800467 0.017487800467 0.018330458075 0.017487800467 0.010510357034 0.010510357034 0.010510357034 
0.033673228532 0.033673228532 0.033673228532 
$\epsilon_{yy}$ 1 12 double
-0.071268174593 -0.07268639204 -0.069782000581 -0.073195053451 -0.071268174593 -0.073195053451 -0.088642390603 -0.055380329299 -0.088642390603 
-0.1021628489 -0.043883049475 -0.1021628489 
