# vtk DataFile Version 4.2
vtk file generated by meshmagick on Fri Dec 10 13:47:20 2021
ASCII
DATASET UNSTRUCTURED_GRID

POINTS 12 float
0.000000 0.000000 0.000000
1.097869 0.000000 0.000000
1.241893 0.912098 0.000000
0.254183 1.115656 0.000000
2.165131 0.000000 0.000000
2.285526 0.741030 0.000000
2.585002 1.542296 0.000000
1.571023 1.852939 0.000000
0.567195 2.150420 0.000000
3.012687 2.398895 0.000000
1.961336 2.809750 0.000000
0.944920 3.088806 0.000000

CELLS 6 30
4 0 1 2 3
4 1 4 5 2
4 2 5 6 7
4 3 2 7 8
4 7 6 9 10
4 8 7 10 11

CELL_TYPES 6
9
9
9
9
9
9

POINT_DATA 12
VECTORS displacement float
0.00000000 0.00000000 0.00000000
0.09786897 0.00000000 0.00000000
0.24189252 -0.08790205 0.00000000
0.25418276 0.11565564 0.00000000
0.16513054 0.00000000 0.00000000
0.28552638 -0.25897008 0.00000000
0.58500235 -0.45770386 0.00000000
0.57102343 -0.14706139 0.00000000
0.56719489 0.15042034 0.00000000
1.01268736 -0.60110472 0.00000000
0.96133567 -0.19025050 0.00000000
0.94492006 0.08880572 0.00000000

POINTS 24 float
0.280803 0.226675 0.000000
0.901217 0.201840 0.000000
0.997810 0.753275 0.000000
0.414115 0.845964 0.000000
1.352788 0.185109 0.000000
1.966089 0.164238 0.000000
2.038483 0.612943 0.000000
1.433058 0.690838 0.000000
1.530668 1.068537 0.000000
2.129592 0.952741 0.000000
2.306112 1.432382 0.000000
1.717073 1.594702 0.000000
0.529777 1.287116 0.000000
1.101999 1.158132 0.000000
1.290056 1.712786 0.000000
0.712462 1.873078 0.000000
1.869454 1.985015 0.000000
2.459435 1.793439 0.000000
2.701799 2.300223 0.000000
2.099361 2.525203 0.000000
0.859714 2.286682 0.000000
1.440810 2.117179 0.000000
1.664621 2.667346 0.000000
1.079329 2.830707 0.000000


POINT_DATA 24
VECTORS strain float
0.074590 0.072639 0.093943
0.074590 -0.044885 0.062143
0.010989 -0.044885 0.003381
0.010989 0.072639 0.035181
0.062268 -0.124053 0.051440
0.062268 -0.222819 0.044619
0.048627 -0.222819 -0.004764
0.048627 -0.124053 0.002057
0.037367 -0.088655 0.061150
0.037367 -0.169238 0.052590
0.020246 -0.169238 0.012298
0.020246 -0.088655 0.020859
-0.008884 0.014916 0.046506
-0.008884 -0.039311 0.051159
0.000422 -0.039311 0.024046
0.000422 0.014916 0.019393
0.021877 -0.064366 0.033195
0.021877 -0.122224 0.043984
0.043454 -0.122224 0.015055
0.043454 -0.064366 0.004267
0.006489 -0.057721 0.043399
0.006489 -0.047083 0.047032
0.013756 -0.047083 0.052351
0.013756 -0.057721 0.048718
